% Model:              Mirror_Composite_Test.mph
% Version:            COMSOL 5.6.0.401
% Date:               Feb 23 2022, 13:29
% Dimension:          3
% Nodes:              3220
% Expressions:        4
% Description:        X-coordinate, Y-coordinate, Z-coordinate, Temperature
% Length unit:        m
% X;Y;Z;X (m);Y (m);Z (m);T (K)
0.19064539296715283;0.3440245326285061;0.2273781709716319;0.1906453929671528;0.3440245326285061;0.2273781709716319;239.99999999999272
0.19233873635265622;0.34490620841919645;0.23509280747350159;0.1923387363526562;0.3449062084191964;0.23509280747350156;239.99999999999272
0.1939887372892048;0.3444097277589774;0.24291523055229633;0.1939887372892048;0.3444097277589774;0.24291523055229636;239.99999999999275
0.19559539577679858;0.34253509064784887;0.25084544020801625;0.19559539577679855;0.34253509064784887;0.25084544020801625;239.9999999999928
0.2019527407829026;0.3440437761320149;0.22753283417477174;0.2019527407829026;0.34404377613201487;0.22753283417477174;239.9999999999927
0.20375807420628242;0.34354448757159706;0.23554646270130045;0.20375807420628242;0.34354448757159706;0.23554646270130045;239.99999999999275
0.20552006518070734;0.34166704256026975;0.24366787780475416;0.20552006518070734;0.34166704256026975;0.24366787780475416;239.99999999999275
0.21322374993727927;0.3427053158010219;0.22778866672654238;0.21322374993727927;0.3427053158010219;0.2277886667265424;239.99999999999267
0.2151410733985355;0.3408250628894959;0.23610128727773008;0.2151410733985355;0.3408250628894959;0.23610128727773008;239.99999999999275
0.2244584204302829;0.3400091516355272;0.22814566862694385;0.22445842043028294;0.3400091516355272;0.22814566862694385;239.99999999999264
0.13119301453866603;0.3492897608907106;0.2620141002169756;0.13119301453866603;0.3492897608907106;0.2620141002169756;239.99999999999272
0.13112606873281285;0.3503008289736146;0.26955047803990007;0.13112606873281285;0.3503008289736146;0.26955047803990007;239.99999999999275
0.13098803757051256;0.34993423697491194;0.277209985833538;0.13098803757051256;0.34993423697491194;0.277209985833538;239.99999999999272
0.13077892105176514;0.34818998489460273;0.28499262359788957;0.13077892105176514;0.3481899848946027;0.28499262359788957;239.99999999999272
0.14226337693084015;0.3493071224990414;0.26452055613246844;0.14226337693084015;0.3493071224990414;0.2645205561324684;239.99999999999278
0.14223065996742562;0.3489432256126438;0.27240274965884803;0.14223065996742562;0.3489432256126438;0.27240274965884803;239.99999999999287
0.14212685764756391;0.3472016686446395;0.28040807315594113;0.14212685764756391;0.3472016686446395;0.28040807315594113;239.9999999999928
0.1532711467498763;0.3479691190480181;0.2671448347461215;0.1532711467498763;0.3479691190480181;0.2671448347461215;239.99999999999278
0.15327265862890038;0.346230257192319;0.2753728439759563;0.15327265862890038;0.346230257192319;0.2753728439759563;239.99999999999287
0.1642163239957744;0.3452757505376406;0.2698869360579349;0.1642163239957744;0.34527575053764065;0.2698869360579349;239.99999999999275
0.1844245249570662;0.3452396530457392;0.24933514978426166;0.1844245249570662;0.3452396530457392;0.24933514978426163;239.99999999999278
0.18277091344175245;0.34572554337674805;0.24151566645530034;0.18277091344175245;0.34572554337674805;0.24151566645530034;239.9999999999928
0.18107395947748384;0.3448332772568473;0.2338039697032641;0.18107395947748384;0.34483327725684737;0.23380396970326411;239.99999999999278
0.17320467299721223;0.3465877101362573;0.24793520406192884;0.17320467299721226;0.3465877101362573;0.24793520406192887;239.99999999999278
0.1715041084541785;0.3456848536871464;0.24022644705972612;0.17150410845417846;0.34568485368714635;0.2402264470597261;239.99999999999278
0.16193583989723664;0.34657926191940297;0.24664560304101796;0.16193583989723662;0.34657926191940297;0.24664560304101799;239.99999999999272
0.16351294022675986;0.3470884524937566;0.2620234531758143;0.16351294022675983;0.3470884524937566;0.2620234531758143;239.99999999999272
0.1627527788605806;0.3475229562876774;0.25427634217017536;0.1627527788605806;0.3475229562876774;0.25427634217017536;239.99999999999272
0.1525070951309702;0.3483939455729281;0.2594002035949606;0.1525070951309702;0.3483939455729281;0.2594002035949606;239.9999999999928
0.1516862659148994;0.34744057393564276;0.25177194432028116;0.15168626591489942;0.34744057393564276;0.2517719443202812;239.99999999999278
0.14143865746204254;0.3483440735927454;0.2568947767122671;0.14143865746204254;0.34834407359274533;0.25689477671226707;239.99999999999278
0.17409605382635576;0.34615325219326404;0.2558906720274373;0.17409605382635576;0.34615325219326404;0.2558906720274373;239.9999999999928
0.17493065705833455;0.34434059608807543;0.26396251186942726;0.17493065705833455;0.34434059608807543;0.26396251186942726;239.99999999999275
0.1853903476520093;0.34342704279147834;0.25761534658612106;0.1853903476520093;0.34342704279147834;0.25761534658612106;239.99999999999284
0.1204213341941181;0.3501815554039011;0.26569433358293054;0.12042133419411812;0.35018155540390117;0.2656943335829306;239.9999999999928
0.10965201099537897;0.351114842300444;0.26937093851029753;0.10965201099537897;0.351114842300444;0.2693709385102976;239.99999999999278
0.0988850449424486;0.35208962158033935;0.27304391499907665;0.0988850449424486;0.35208962158033935;0.27304391499907665;239.9999999999928
0.12035849736680648;0.35120150041605347;0.27322875247608713;0.12035849736680648;0.35120150041605347;0.27322875247608713;239.9999999999928
0.10959328314660885;0.3521436642418448;0.27690339847368617;0.10959328314660885;0.35214366424184484;0.27690339847368617;239.9999999999928
0.12022457518304774;0.3508437853465994;0.2808863013399572;0.12022457518304773;0.3508437853465993;0.2808863013399571;239.9999999999928
0.09793300780759777;0.3531807255521744;0.2805489366470943;0.09793300780759776;0.35318072555217433;0.28054893664709424;239.99999999999284
0.09689495902176015;0.3528956021580048;0.2881818379808564;0.09689495902176015;0.3528956021580048;0.2881818379808564;239.99999999999284
0.09577089858493579;0.35123425139783077;0.295942619000363;0.09577089858493577;0.35123425139783077;0.295942619000363;239.99999999999284
0.10863310232439209;0.3518637042760757;0.28477018888392236;0.10863310232439209;0.3518637042760757;0.28477018888392236;239.99999999999287
0.10758690985118853;0.3502075169443021;0.2927648589799029;0.10758690985118853;0.3502075169443021;0.2927648589799029;239.99999999999287
0.11925625067346501;0.3491927614432262;0.28911486051241186;0.11925625067346501;0.3491927614432262;0.28911486051241186;239.99999999999287
0.06534302075233406;0.35504237969608027;0.28066890105161846;0.06534302075233406;0.35504237969608027;0.2806689010516185;239.99999999999275
0.06356435816698525;0.35619176250238216;0.2878407772295909;0.06356435816698525;0.35619176250238216;0.2878407772295909;239.99999999999284
0.061684227713892294;0.3559654446245484;0.2951436192918769;0.061684227713892294;0.3559654446245484;0.2951436192918769;239.99999999999284
0.05970262939305525;0.3543634260625792;0.3025774272384765;0.05970262939305524;0.3543634260625792;0.3025774272384765;239.99999999999287
0.07557752846516022;0.3551256849403807;0.2856327952149564;0.07557752846516022;0.35512568494038066;0.2856327952149563;239.99999999999284
0.07374662482526596;0.3549074346326161;0.2931770243999372;0.07374662482526596;0.3549074346326161;0.2931770243999372;239.99999999999292
0.07181425331762759;0.35331348364071585;0.3008522194692316;0.07181425331762759;0.35331348364071585;0.3008522194692316;239.99999999999292
0.08572015440936079;0.35385630884096414;0.29072403453120454;0.08572015440936079;0.35385630884096414;0.29072403453120454;239.99999999999284
0.08383700971492111;0.3522704254191331;0.2986406167231938;0.08383700971492111;0.3522704254191331;0.2986406167231938;239.99999999999292
0.08675385133246034;0.3541322066798968;0.2830927653009701;0.08675385133246034;0.3541322066798968;0.2830927653009701;239.99999999999292
0.08770153660457311;0.3530318771528249;0.2755893757564801;0.08770153660457312;0.35303187715282497;0.2755893757564801;239.9999999999929
0.07652086187453495;0.354016129858072;0.2781310377739941;0.07652086187453494;0.35401612985807196;0.2781310377739941;239.9999999999929
0.22207650747943594;0.34197910590148983;0.2207273910363179;0.22207650747943591;0.34197910590148983;0.22072739103631786;239.9999999999927
0.2196636053982013;0.34256857339336777;0.21340721344269953;0.2196636053982013;0.34256857339336777;0.21340721344269953;239.99999999999272
0.21721971418657904;0.341777554111161;0.20618513584608883;0.21721971418657904;0.341777554111161;0.20618513584608886;239.99999999999272
0.2108075924454162;0.34328541491201425;0.22047149682986494;0.2108075924454162;0.34328541491201425;0.22047149682986494;239.9999999999927
0.20836044582316532;0.3424850272489218;0.21325242693019514;0.20836044582316535;0.3424850272489218;0.21325242693019517;239.99999999999272
0.1995023387500233;0.34323402008803694;0.22031677197204286;0.19950233875002327;0.3432340200880369;0.22031677197204283;239.99999999999272
0.22829967543312588;0.3417899113681549;0.20473906785460427;0.22829967543312585;0.3417899113681549;0.20473906785460427;239.9999999999927
0.23088995471690174;0.3411958747149571;0.21223054311448114;0.23088995471690174;0.3411958747149571;0.21223054311448114;239.99999999999275
0.23344924487028992;0.33922135128767444;0.2198201183713656;0.23344924487028992;0.33922135128767444;0.2198201183713656;239.9999999999927
0.23935484435535934;0.34044277039202014;0.20338383778425878;0.23935484435535934;0.34044277039202014;0.20338383778425878;239.99999999999267
0.24209151171128884;0.3384636778034177;0.21114471070740182;0.24209151171128884;0.3384636778034177;0.21114471070740182;239.99999999999275
0.25038522095327953;0.33773613118275664;0.20211944563505235;0.25038522095327953;0.33773613118275664;0.20211944563505235;239.9999999999926
0.18362188456901327;0.3426184491260676;0.20413551103277866;0.18362188456901327;0.3426184491260676;0.2041355110327787;239.99999999999272
0.18596234059566086;0.34306580927222485;0.21188457058093446;0.18596234059566086;0.34306580927222485;0.21188457058093446;239.99999999999275
0.18830351006170737;0.3435345037730376;0.2196321238938855;0.18830351006170737;0.3435345037730376;0.2196321238938855;239.9999999999927
0.19481997274874133;0.34229734967359055;0.2048214590113362;0.19481997274874133;0.34229734967359055;0.2048214590113362;239.99999999999272
0.19716079902968284;0.342755017703486;0.2125698686092919;0.19716079902968284;0.342755017703486;0.2125698686092919;239.99999999999275
0.20601924928792992;0.3420170513352883;0.20550466728243955;0.20601924928792992;0.34201705133528837;0.2055046672824396;239.99999999999272
0.15758416639959846;0.3448611090098357;0.2218155632718594;0.15758416639959846;0.3448611090098357;0.2218155632718594;239.9999999999928
0.1590337531585548;0.34541088356467337;0.2300940009774676;0.1590337531585548;0.34541088356467337;0.2300940009774676;239.99999999999287
0.16048431099110086;0.3459836012011958;0.2383706809005204;0.16048431099110086;0.3459836012011958;0.2383706809005204;239.99999999999278
0.16860305329336997;0.344541845661557;0.22367273477231076;0.16860305329336997;0.344541845661557;0.22367273477231073;239.9999999999928
0.17005309533697938;0.34510187813350934;0.23195046980729606;0.17005309533697938;0.34510187813350934;0.23195046980729606;239.99999999999287
0.1796234621492214;0.34426298686778034;0.22552693733890156;0.17962346214922142;0.3442629868677804;0.22552693733890158;239.99999999999278
0.1749412657722029;0.34333047170242603;0.21003133735450735;0.1749412657722029;0.343330471702426;0.21003133735450735;239.99999999999278
0.16626202638239795;0.34407802499701534;0.2159246881008676;0.16626202638239795;0.34407802499701534;0.2159246881008676;239.99999999999278
0.17728200724101273;0.34378606210777546;0.21777989046430685;0.17728200724101273;0.34378606210777546;0.21777989046430685;239.9999999999928
0.10053211769171114;0.3499555290022952;0.24922884602761045;0.10053211769171112;0.34995552900229526;0.24922884602761045;239.99999999999275
0.09998182963355436;0.350646439689826;0.2571689478188757;0.09998182963355436;0.350646439689826;0.2571689478188757;239.99999999999278
0.09943280538380017;0.35135780388250737;0.2651073041426978;0.09943280538380017;0.35135780388250737;0.2651073041426978;239.99999999999278
0.11075018059682282;0.3496940703451207;0.25349390092806495;0.11075018059682282;0.3496940703451207;0.25349390092806495;239.99999999999278
0.11020046389189961;0.3503942295702071;0.2614332924529029;0.11020046389189961;0.3503942295702071;0.2614332924529029;239.9999999999928
0.12097047954580775;0.3494721476412591;0.25775565232452;0.12097047954580778;0.3494721476412591;0.25775565232452;239.99999999999278
0.1300962946120848;0.347423908530677;0.23851681172294747;0.1300962946120848;0.347423908530677;0.23851681172294747;239.99999999999272
0.13046083669223685;0.3480259382004239;0.2463508712429117;0.13046083669223685;0.3480259382004239;0.2463508712429117;239.99999999999275
0.13082641000109727;0.34864788898710175;0.254183300740921;0.13082641000109727;0.34864788898710175;0.254183300740921;239.9999999999927
0.14070766407535182;0.3471036210099747;0.24122948198094676;0.14070766407535182;0.3471036210099747;0.24122948198094676;239.99999999999275
0.141072645154343;0.34771388674289455;0.2490629443575844;0.141072645154343;0.34771388674289455;0.2490629443575844;239.9999999999928
0.15132084583706912;0.3468220721395501;0.24393907908697027;0.15132084583706912;0.34682207213955013;0.2439390790869703;239.99999999999275
0.12023956826125831;0.34823252691120643;0.24209030021205913;0.1202395682612583;0.34823252691120643;0.24209030021205913;239.99999999999278
0.11038484262113374;0.34907640040174587;0.24566097831361344;0.11038484262113374;0.34907640040174587;0.24566097831361344;239.9999999999928
0.12060450828917887;0.34884237671776736;0.24992379127926703;0.12060450828917887;0.34884237671776736;0.24992379127926703;239.9999999999928
0.1484197848038111;0.34567837517580413;0.22738543102234082;0.14841978480381113;0.34567837517580413;0.22738543102234082;239.9999999999928
0.13925716087463985;0.34653264168275116;0.23295251383937016;0.13925716087463985;0.34653264168275116;0.23295251383937016;239.99999999999272
0.14986982978364524;0.3462387521168348;0.23566313394593322;0.14986982978364524;0.3462387521168348;0.23566313394593322;239.9999999999928
0.24678035299352055;0.3397499708130185;0.1944832192564541;0.24678035299352052;0.3397499708130185;0.19448321925645407;239.9999999999926
0.2431553492758656;0.3403860309576925;0.18693304253063886;0.2431553492758656;0.3403860309576925;0.1869330425306389;239.99999999999253
0.2395102098003148;0.33964431161677866;0.17946891545760674;0.2395102098003148;0.33964431161677866;0.17946891545760676;239.99999999999247
0.23572707515715388;0.3410661443913473;0.19583743329021885;0.23572707515715388;0.3410661443913473;0.19583743329021885;239.99999999999264
0.23207917020105237;0.3403117389050864;0.18837707844896195;0.2320791702010524;0.3403117389050865;0.18837707844896195;239.9999999999926
0.22464900499647386;0.3410228197365473;0.19728248524512265;0.22464900499647383;0.34102281973654724;0.19728248524512265;239.99999999999267
0.25068766456566827;0.3397050073740547;0.1772828887850214;0.25068766456566827;0.3397050073740546;0.17728288878502138;239.99999999999253
0.2545090915739606;0.3390616681587774;0.18498164498430225;0.2545090915739606;0.3390616681587774;0.18498164498430225;239.9999999999926
0.258310382824357;0.3370405494579122;0.19276645083636607;0.258310382824357;0.3370405494579122;0.19276645083636607;239.99999999999255
0.2618502571893154;0.3384070399993494;0.17517528881622718;0.2618502571893154;0.3384070399993494;0.1751752888162272;239.99999999999253
0.2658479717303493;0.336378642227881;0.18310867414175674;0.2658479717303493;0.336378642227881;0.18310867414175674;239.99999999999258
0.27299798767125644;0.3357504094926629;0.17314611555122422;0.27299798767125644;0.3357504094926629;0.17314611555122425;239.9999999999925
0.2604167330679945;0.3379179431800827;0.15273451492113221;0.2604167330679945;0.3379179431800827;0.15273451492113221;239.99999999999253
0.25344735047938155;0.3384517674319082;0.1616482467448325;0.25344735047938155;0.3384517674319082;0.1616482467448325;239.99999999999255
0.24647850939015498;0.3390272235774735;0.17055971359032399;0.24647850939015498;0.3390272235774735;0.170559713590324;239.99999999999255
0.2646208900820682;0.33857591933497516;0.15946472593675043;0.2646208900820682;0.33857591933497516;0.15946472593675043;239.99999999999255
0.25765400657417503;0.33911964740764505;0.1683749398499903;0.25765400657417503;0.33911964740764505;0.1683749398499903;239.9999999999926
0.26881464161648877;0.33785340810583525;0.16626859281344775;0.26881464161648877;0.33785340810583525;0.16626859281344775;239.9999999999925
0.27093931929761506;0.3380002539011356;0.14897327932989352;0.27093931929761506;0.3380002539011356;0.14897327932989352;239.99999999999255
0.2753458121427473;0.3372691762224972;0.15590089560016254;0.2753458121427473;0.3372691762224972;0.15590089560016254;239.9999999999926
0.2797418995082264;0.33515761115982634;0.1629021677315106;0.2797418995082264;0.33515761115982634;0.1629021677315106;239.9999999999925
0.28145584689300884;0.3367217560837316;0.14527764165021131;0.28145584689300884;0.33672175608373167;0.14527764165021131;239.99999999999255
0.2860646755691996;0.33460162457156234;0.1524026631751311;0.2860646755691996;0.33460162457156234;0.1524026631751311;239.99999999999258
0.29196631585417593;0.3340824497278709;0.1416476018820856;0.29196631585417593;0.3340824497278709;0.1416476018820856;239.99999999999253
0.0314312739055129;0.3579459109100701;0.2833348964701726;0.0314312739055129;0.35794591091007005;0.2833348964701727;239.99999999999275
0.028771123172967955;0.35918145477355184;0.2903581293141889;0.028771123172967955;0.35918145477355184;0.2903581293141889;239.9999999999928
0.025994000075778012;0.3590432983916146;0.2975131639629811;0.025994000075778012;0.3590432983916146;0.2975131639629811;239.9999999999928
0.023099904613943092;0.35753144176425855;0.30480000041654937;0.023099904613943092;0.35753144176425855;0.30480000041654937;239.99999999999284
0.04096211261484239;0.35810276049997647;0.28961990179413527;0.04096211261484239;0.3581027604999764;0.2896199017941353;239.9999999999928
0.038204841960137376;0.35797507914943794;0.2970201844647236;0.038204841960137376;0.35797507914943794;0.2970201844647236;239.99999999999284
0.035330598940787376;0.35647369755348046;0.3045522689400878;0.035330598940787376;0.35647369755348046;0.3045522689400878;239.99999999999284
0.050385897777356504;0.35690859888414606;0.29603407871690324;0.05038589777735651;0.3569085988841461;0.2960340787169033;239.99999999999287
0.04753150720049144;0.3554176923195874;0.3038114112140636;0.04753150720049144;0.3554176923195874;0.3038114112140636;239.9999999999929
0.05403589422512492;0.3559692589086996;0.28156133847819875;0.05403589422512492;0.3559692589086997;0.28156133847819875;239.99999999999284
0.042731978609517864;0.3569371026466962;0.28245000361771677;0.04273197860951787;0.3569371026466962;0.28245000361771677;239.9999999999928
0.052261629935112776;0.3571267792384907;0.28873222565539425;0.052261629935112776;0.3571267792384907;0.28873222565539425;239.99999999999284
0.06974612563936004;0.35281841779022366;0.25904462875259504;0.06974612563936004;0.35281841779022366;0.2590446287525951;239.9999999999928
0.06827716671136974;0.353542324028797;0.2662542545164754;0.06827716671136974;0.353542324028797;0.2662542545164754;239.99999999999287
0.06680946508236106;0.3542836446640825;0.2734623452828165;0.06680946508236106;0.3542836446640825;0.2734623452828165;239.9999999999928
0.07945660468545108;0.35253813419680186;0.2637143041923106;0.07945660468545107;0.35253813419680186;0.26371430419231057;239.99999999999284
0.0779881046305022;0.3532684248290809;0.27092343848192196;0.0779881046305022;0.3532684248290809;0.27092343848192196;239.99999999999292
0.08916957778648057;0.3522952021268404;0.2683807329411378;0.08916957778648059;0.3522952021268404;0.2683807329411378;239.99999999999284
0.08971798269486879;0.3515737294007813;0.2604431668957032;0.08971798269486879;0.3515737294007813;0.2604431668957032;239.99999999999287
0.09026765141165956;0.3508727101798726;0.25250385538282527;0.09026765141165957;0.35087271017987265;0.25250385538282527;239.99999999999284
0.08000565406087587;0.3518270064425155;0.2557757829578202;0.08000565406087587;0.35182700644251547;0.2557757829578202;239.99999999999284
0.03889750149244193;0.3553205653593405;0.2607239200771654;0.03889750149244193;0.3553205653593405;0.2607239200771654;239.99999999999275
0.03640708890697965;0.35617547948658407;0.2682627063002716;0.03640708890697965;0.35617547948658407;0.2682627063002716;239.9999999999928
0.033918346378003304;0.3570505946701606;0.27579969843127394;0.033918346378003304;0.3570505946701606;0.27579969843127394;239.99999999999278
0.047709649396704766;0.35518864560243346;0.26737571156149403;0.047709649396704766;0.35518864560243346;0.26737571156149403;239.99999999999284
0.045219978974868354;0.35605277359639836;0.2749137546356573;0.045219978974868354;0.35605277359639836;0.2749137546356573;239.99999999999287
0.05652482248333547;0.3550959170480134;0.27402403855297836;0.05652482248333548;0.35509591704801347;0.2740240385529784;239.99999999999287
0.059460661026654746;0.35361860856530025;0.2596072661416436;0.059460661026654746;0.35361860856530025;0.25960726614164353;239.9999999999928
0.04917778631101537;0.3544526577550059;0.2601670299165003;0.04917778631101537;0.3544526577550059;0.2601670299165003;239.9999999999928
0.0579921131055043;0.35434855560830075;0.26681641984608057;0.0579921131055043;0.35434855560830075;0.26681641984608057;239.99999999999287
0.20534106672013674;0.34049926228575517;0.1812302303947102;0.20534106672013674;0.34049926228575517;0.1812302303947102;239.99999999999272
0.20929990696461456;0.3408976665087345;0.18955028821578218;0.20929990696461456;0.3408976665087345;0.18955028821578218;239.99999999999275
0.2132594561200953;0.3413237637838697;0.19786859003290835;0.2132594561200953;0.3413237637838697;0.19786859003290835;239.9999999999927
0.21672985297314026;0.3401720508775635;0.1806456188455651;0.21672985297314024;0.3401720508775635;0.1806456188455651;239.9999999999927
0.22068907452930558;0.3405835887809774;0.18896493004731676;0.22068907452930558;0.3405835887809774;0.18896493004731676;239.99999999999272
0.22811956733319957;0.33988706732123797;0.1800585138665306;0.2281195673331996;0.339887067321238;0.1800585138665306;239.99999999999264
0.19810022502963293;0.34116979595524527;0.18886758533202744;0.19810022502963293;0.34116979595524527;0.18886758533202747;239.99999999999278
0.19086049764592508;0.34187619156868265;0.19650267887805026;0.19086049764592508;0.34187619156868265;0.19650267887805026;239.9999999999927
0.20205938270327997;0.3415795771191888;0.19718700430920644;0.20205938270327997;0.3415795771191888;0.19718700430920644;239.99999999999275
0.17747304820394305;0.34137885537186313;0.1809856511159442;0.17747304820394305;0.34137885537186313;0.1809856511159442;239.99999999999272
0.17952192069673514;0.3417712817735766;0.18870357978946536;0.17952192069673514;0.3417712817735766;0.18870357978946536;239.99999999999275
0.1815715328184252;0.34218447969164467;0.19642019976174352;0.1815715328184252;0.34218447969164467;0.19642019976174352;239.9999999999927
0.1867614903023846;0.3410576869265512;0.18106883529099954;0.1867614903023846;0.3410576869265512;0.18106883529099954;239.99999999999275
0.18881062415970587;0.34145655348943965;0.18878641143514643;0.18881062415970587;0.34145655348943965;0.18878641143514643;239.99999999999275
0.19605082980778246;0.34076448923118186;0.18115036171725488;0.19605082980778246;0.34076448923118186;0.18115036171725488;239.9999999999927
0.15524377659478258;0.34434154499022834;0.2130810706884343;0.15524377659478258;0.34434154499022834;0.2130810706884343;239.9999999999928
0.16392207593201238;0.3435685586070684;0.20718942078639296;0.16392207593201238;0.3435685586070684;0.20718942078639296;239.9999999999928
0.17260175467624764;0.3428311029421393;0.2012952953089831;0.17260175467624767;0.34283110294213937;0.20129529530898313;239.99999999999272
0.15290456285979592;0.34384858815878067;0.20434476184896555;0.15290456285979592;0.34384858815878067;0.20434476184896555;239.99999999999272
0.1615833015514561;0.34308569940528116;0.19845233721587469;0.16158330155145606;0.3430856994052811;0.19845233721587466;239.99999999999272
0.15056652519463856;0.34338223851549293;0.1956066367534532;0.15056652519463856;0.3433822385154929;0.19560663675345322;239.9999999999927
0.1685028274976232;0.3420129889264591;0.18586138630718035;0.1685028274976232;0.3420129889264591;0.18586138630718035;239.9999999999927
0.15953398649452166;0.34268078330766893;0.19073504818635;0.15953398649452166;0.34268078330766893;0.19073504818635;239.99999999999267
0.17055192127248642;0.3424116601761219;0.19357899515870328;0.17055192127248642;0.3424116601761219;0.19357899515870328;239.99999999999275
0.13000512022349434;0.34569754328358526;0.2151757561620689;0.13000512022349434;0.34569754328358526;0.2151757561620689;239.99999999999278
0.13003449114321253;0.34625336725031985;0.22295756398096675;0.13003449114321253;0.34625336725031985;0.22295756398096675;239.99999999999275
0.13006488260607602;0.34682882233268375;0.2307379158345929;0.13006488260607602;0.34682882233268375;0.2307379158345929;239.99999999999272
0.13919676249619864;0.34538984333753947;0.21739108931345122;0.13919676249619864;0.3453898433375394;0.21739108931345122;239.99999999999272
0.13922645141384662;0.3459514269523307;0.22517252955904654;0.13922645141384662;0.3459514269523307;0.22517252955904654;239.99999999999275
0.14838977788823335;0.3451110319129562;0.21960435835004805;0.14838977788823338;0.3451110319129562;0.21960435835004805;239.99999999999272
0.14604995959949446;0.344604774430155;0.2108688954904582;0.14604995959949446;0.344604774430155;0.2108688954904582;239.99999999999275
0.1437113173805848;0.34412512413551344;0.20213161637482466;0.1437113173805848;0.34412512413551344;0.20213161637482463;239.99999999999267
0.13685751572353674;0.3448968923915443;0.20865465617769663;0.13685751572353672;0.34489689239154425;0.20865465617769657;239.99999999999272
0.10009216076680127;0.34928753110640526;0.24054307974518435;0.10009216076680127;0.34928753110640526;0.24054307974518432;239.9999999999928
0.10994542691265022;0.3484169426865998;0.23697447130267163;0.10994542691265022;0.3484169426865998;0.23697447130267163;239.99999999999287
0.11980069376920105;0.3475816093768041;0.23340305247260157;0.11980069376920105;0.34758160937680416;0.2334030524726016;239.99999999999284
0.09965371692720756;0.34864403019501244;0.23185542257648975;0.09965371692720756;0.34864403019501244;0.23185542257648978;239.9999999999928
0.1095075242894828;0.3477819819559509;0.22828607340546142;0.1095075242894828;0.34778198195595084;0.2282860734054614;239.99999999999284
0.09921678617292999;0.348025026268117;0.22316587452152678;0.09921678617292998;0.34802502626811693;0.22316587452152678;239.99999999999275
0.11974028265598588;0.34643724221955363;0.21784171722734266;0.11974028265598588;0.34643724221955363;0.21784171722734266;239.9999999999928
0.10947750463913108;0.34721306988106415;0.22050509001382862;0.10947750463913108;0.34721306988106415;0.22050509001382862;239.99999999999278
0.11976997794102082;0.3469996102403643;0.225623112832608;0.11976997794102082;0.3469996102403643;0.225623112832608;239.9999999999928
0.07526772951370889;0.35058351003454985;0.2362373857083187;0.07526772951370889;0.35058351003454985;0.2362373857083187;239.9999999999928
0.0734258025622441;0.3513087636349501;0.2438413949506244;0.0734258025622441;0.3513087636349501;0.2438413949506244;239.9999999999928
0.07158526793746113;0.35205373288684133;0.25144380929871646;0.07158526793746113;0.35205373288684133;0.25144380929871646;239.9999999999928
0.08368729586237156;0.3503452924738837;0.24057016379783303;0.08368729586237156;0.3503452924738837;0.24057016379783303;239.9999999999928
0.08184577879828278;0.351076291632454;0.24817377082493342;0.08184577879828278;0.351076291632454;0.24817377082493342;239.99999999999287
0.0921087585883723;0.35013596546313214;0.24490065057093025;0.09210875858837231;0.3501359654631322;0.24490065057093027;239.99999999999284
0.0912320210618039;0.3488513433268555;0.22752503459690554;0.09123202106180389;0.3488513433268555;0.22752503459690554;239.99999999999284
0.08324900217539685;0.34970417124899983;0.23188220499250284;0.08324900217539687;0.34970417124899983;0.23188220499250284;239.99999999999284
0.09166963328243005;0.3494814059027453;0.23621378802705217;0.09166963328243005;0.3494814059027453;0.23621378802705217;239.99999999999287
0.02006232513724663;0.35888512795743716;0.2829550305878731;0.02006232513724663;0.3588851279574372;0.2829550305878731;239.9999999999929
0.008697049704599974;0.3598654462320498;0.2825713716033566;0.008697049704599974;0.3598654462320498;0.28257137160335666;239.99999999999284
-0.002664552392427063;0.36088686573390816;0.2821839195166233;-0.0026645523924270632;0.36088686573390816;0.2821839195166233;239.99999999999275
0.01740669344919815;0.3601290939326201;0.2899776732312215;0.01740669344919815;0.3601290939326201;0.2899776732312215;239.99999999999287
0.006045937061047958;0.36111783431893396;0.28959342404603705;0.006045937061047958;0.36111783431893396;0.28959342404603705;239.9999999999928
0.01463408939650468;0.35999935966238417;0.2971321176793458;0.014634089396504676;0.35999935966238406;0.2971321176793458;239.99999999999284
-0.0061450244071764035;0.36219405678155964;0.28885092641527915;-0.0061450244071764035;0.36219405678155964;0.28885092641527915;239.9999999999928